C24C2N.mol2_GMX.gro created by acpype (v: 2022.7.21) on Sat Jan 17 09:28:13 2026
 84
    1  UNL    C    1  -0.133  -0.479  -0.096
    1  UNL   C1    2  -0.246  -0.263  -0.088
    1  UNL   C2    3  -0.377  -0.471  -0.101
    1  UNL   C3    4  -0.590   0.093  -0.112
    1  UNL   C4    5  -0.479  -0.122  -0.099
    1  UNL   C5    6  -0.351   0.083  -0.086
    1  UNL   C6    7  -0.468   0.160  -0.099
    1  UNL   C7    8  -0.356  -0.055  -0.086
    1  UNL   C8    9  -0.596  -0.045  -0.112
    1  UNL   C9   10  -0.264  -0.543  -0.101
    1  UNL  C10   11  -0.376  -0.326  -0.096
    1  UNL  C11   12  -0.132  -0.334  -0.088
    1  UNL    N   13  -0.488  -0.260  -0.100
    1  UNL   N1   14  -0.234  -0.123  -0.076
    1  UNL   N2   15  -0.224   0.142  -0.076
    1  UNL   N3   16  -0.011  -0.264  -0.076
    1  UNL   N4   17  -0.466   0.298  -0.100
    1  UNL   N5   18  -0.026  -0.552  -0.101
    1  UNL  C12   19  -0.105   0.344  -0.088
    1  UNL  C13   20  -0.220   0.562  -0.101
    1  UNL  C14   21  -0.349   0.355  -0.096
    1  UNL  C15   22  -0.224   0.281  -0.088
    1  UNL  C16   23  -0.339   0.500  -0.101
    1  UNL  C17   24  -0.094   0.488  -0.096
    1  UNL   N6   25   0.018   0.552  -0.101
    1  UNL   N7   26   0.010   0.265  -0.076
    1  UNL  C18   27   0.103  -0.345  -0.086
    1  UNL  C19   28   0.215  -0.557  -0.114
    1  UNL  C20   29   0.345  -0.354  -0.099
    1  UNL  C21   30   0.226  -0.281  -0.086
    1  UNL  C22   31   0.337  -0.493  -0.113
    1  UNL  C23   32   0.096  -0.485  -0.100
    1  UNL   N8   33   0.469  -0.292  -0.100
    1  UNL   N9   34   0.224  -0.141  -0.076
    1  UNL  C24   35   0.597  -0.091  -0.100
    1  UNL  C25   36   0.481   0.125  -0.096
    1  UNL  C26   37   0.350  -0.081  -0.088
    1  UNL  C27   38   0.134   0.476  -0.100
    1  UNL  C28   39   0.247   0.262  -0.086
    1  UNL  C29   40   0.375   0.465  -0.114
    1  UNL  C30   41   0.259   0.538  -0.114
    1  UNL  C31   42   0.372   0.325  -0.099
    1  UNL  C32   43   0.131   0.336  -0.086
    1  UNL  C33   44   0.470  -0.162  -0.096
    1  UNL  C34   45   0.356   0.053  -0.088
    1  UNL  C35   46   0.602   0.043  -0.100
    1  UNL  N10   47   0.234   0.123  -0.076
    1  UNL  N11   48   0.491   0.254  -0.100
    1  UNL    H   49  -0.432   0.554  -0.106
    1  UNL   H1   50  -0.211   0.670  -0.107
    1  UNL   H2   51  -0.680   0.153  -0.123
    1  UNL   H3   52  -0.690  -0.098  -0.123
    1  UNL   H4   53  -0.475  -0.518  -0.106
    1  UNL   H5   54  -0.264  -0.651  -0.107
    1  UNL   H6   55   0.207  -0.665  -0.125
    1  UNL   H7   56   0.430  -0.548  -0.124
    1  UNL   H8   57   0.686  -0.152  -0.105
    1  UNL   H9   58   0.696   0.097  -0.105
    1  UNL  H10   59   0.472   0.512  -0.125
    1  UNL  H11   60   0.260   0.646  -0.125
    1  UNL  C36   61   0.138  -0.087   0.031
    1  UNL  C37   62   0.145   0.076   0.031
    1  UNL  C38   63   0.006   0.163   0.031
    1  UNL  C39   64  -0.138   0.087   0.031
    1  UNL  C40   65  -0.145  -0.076   0.031
    1  UNL  C41   66  -0.007  -0.163   0.031
    1  UNL  C42   67   0.061  -0.128   0.373
    1  UNL  C43   68   0.142  -0.011   0.373
    1  UNL  C44   69   0.081   0.117   0.373
    1  UNL  C45   70  -0.061   0.128   0.374
    1  UNL  C46   71  -0.142   0.011   0.374
    1  UNL  C47   72  -0.080  -0.117   0.374
    1  UNL  C48   73   0.199   0.104   0.173
    1  UNL  C49   74   0.227  -0.015   0.249
    1  UNL  C50   75   0.127   0.188   0.249
    1  UNL  C51   76   0.010   0.225   0.173
    1  UNL  C52   77   0.189  -0.121   0.173
    1  UNL  C53   78   0.100  -0.204   0.249
    1  UNL  C54   79  -0.127  -0.188   0.249
    1  UNL  C55   80  -0.010  -0.224   0.173
    1  UNL  C56   81  -0.199  -0.104   0.174
    1  UNL  C57   82  -0.226   0.015   0.249
    1  UNL  C58   83  -0.100   0.204   0.249
    1  UNL  C59   84  -0.189   0.121   0.174
   27.71600    26.70000     9.97200