newNi3.mol2_GMX.gro created by acpype (v: 2022.7.21) on Sat Jan 17 09:28:07 2026
 85
    1  UNL    C    1  -0.082   0.483  -0.151
    1  UNL   C1    2   0.118   0.349  -0.103
    1  UNL   C2    3   0.136   0.591  -0.134
    1  UNL   C3    4   0.594   0.209  -0.059
    1  UNL   C4    5   0.389   0.341  -0.078
    1  UNL   C5    6   0.375   0.098  -0.061
    1  UNL   C6    7   0.519   0.087  -0.057
    1  UNL   C7    8   0.314   0.220  -0.072
    1  UNL   C8    9   0.532   0.330  -0.070
    1  UNL   C9   10   0.001   0.600  -0.153
    1  UNL  C10   11   0.200   0.465  -0.109
    1  UNL  C11   12  -0.018   0.357  -0.123
    1  UNL    N   13   0.334   0.462  -0.095
    1  UNL   N1   14   0.173   0.221  -0.081
    1  UNL   N2   15   0.294  -0.016  -0.055
    1  UNL   N3   16  -0.093   0.239  -0.115
    1  UNL   N4   17   0.582  -0.030  -0.055
    1  UNL   N5   18  -0.212   0.494  -0.177
    1  UNL  C12   19   0.287  -0.254  -0.074
    1  UNL  C13   20   0.492  -0.385  -0.085
    1  UNL  C14   21   0.505  -0.143  -0.062
    1  UNL  C15   22   0.363  -0.138  -0.061
    1  UNL  C16   23   0.567  -0.270  -0.073
    1  UNL  C17   24   0.350  -0.380  -0.086
    1  UNL   N6   25   0.280  -0.497  -0.101
    1  UNL   N7   26   0.148  -0.241  -0.079
    1  UNL  C18   27  -0.227   0.251  -0.150
    1  UNL  C19   28  -0.421   0.382  -0.220
    1  UNL  C20   29  -0.439   0.140  -0.199
    1  UNL  C21   30  -0.303   0.135  -0.159
    1  UNL  C22   31  -0.495   0.267  -0.229
    1  UNL  C23   32  -0.284   0.378  -0.181
    1  UNL   N8   33  -0.516   0.027  -0.213
    1  UNL   N9   34  -0.239   0.014  -0.133
    1  UNL  C24   35  -0.527  -0.212  -0.216
    1  UNL  C25   36  -0.325  -0.344  -0.175
    1  UNL  C26   37  -0.316  -0.101  -0.159
    1  UNL  C27   38   0.148  -0.485  -0.112
    1  UNL  C28   39  -0.057  -0.351  -0.123
    1  UNL  C29   40  -0.067  -0.594  -0.153
    1  UNL  C30   41   0.068  -0.603  -0.135
    1  UNL  C31   42  -0.135  -0.468  -0.149
    1  UNL  C32   43   0.078  -0.360  -0.105
    1  UNL  C33   44  -0.455  -0.089  -0.195
    1  UNL  C34   45  -0.254  -0.223  -0.150
    1  UNL  C35   46  -0.465  -0.333  -0.207
    1  UNL  N10   47  -0.117  -0.224  -0.119
    1  UNL  N11   48  -0.268  -0.465  -0.173
    1  UNL    H   49   0.675  -0.272  -0.073
    1  UNL   H1   50   0.538  -0.482  -0.094
    1  UNL   H2   51   0.702   0.200  -0.055
    1  UNL   H3   52   0.588   0.423  -0.074
    1  UNL   H4   53   0.200   0.678  -0.137
    1  UNL   H5   54  -0.048   0.694  -0.174
    1  UNL   H6   55  -0.463   0.479  -0.243
    1  UNL   H7   56  -0.600   0.269  -0.259
    1  UNL   H8   57  -0.632  -0.203  -0.243
    1  UNL   H9   58  -0.518  -0.426  -0.225
    1  UNL  H10   59  -0.128  -0.682  -0.173
    1  UNL  H11   60   0.121  -0.697  -0.140
    1  UNL  C36   61  -0.150   0.009  -0.013
    1  UNL  C37   62  -0.077  -0.138  -0.003
    1  UNL  C38   63   0.087  -0.148   0.021
    1  UNL  C39   64   0.176  -0.010   0.034
    1  UNL  C40   65   0.103   0.138   0.021
    1  UNL  C41   66  -0.061   0.147  -0.002
    1  UNL  C42   67  -0.169   0.090   0.340
    1  UNL  C43   68  -0.178  -0.073   0.339
    1  UNL  C44   69  -0.050  -0.144   0.348
    1  UNL  C45   70   0.073  -0.078   0.365
    1  UNL  C46   71   0.081   0.067   0.366
    1  UNL  C47   72  -0.034   0.147   0.349
    1  UNL  C48   73  -0.132  -0.190   0.132
    1  UNL  C49   74  -0.222  -0.103   0.196
    1  UNL  C50   75  -0.033  -0.226   0.223
    1  UNL  C51   76   0.093  -0.205   0.165
    1  UNL  C52   77  -0.232   0.013   0.119
    1  UNL  C53   78  -0.209   0.126   0.197
    1  UNL  C54   79  -0.008   0.227   0.224
    1  UNL  C55   80  -0.110   0.203   0.134
    1  UNL  C56   81   0.116   0.194   0.167
    1  UNL  C57   82   0.176   0.103   0.254
    1  UNL  C58   83   0.164  -0.123   0.254
    1  UNL  C59   84   0.215  -0.012   0.185
    1  UNL   NI   85  -0.275   0.014   0.462
   26.67800    27.82800    14.42200