tsNi3.mol2_GMX.gro created by acpype (v: 2022.7.21) on Sat Jan 17 10:23:37 2026
 87
    1  UNL    C    1  -0.099   0.477  -0.155
    1  UNL   C1    2   0.106   0.355  -0.103
    1  UNL   C2    3   0.112   0.597  -0.132
    1  UNL   C3    4   0.586   0.237  -0.046
    1  UNL   C4    5   0.377   0.360  -0.071
    1  UNL   C5    6   0.374   0.116  -0.055
    1  UNL   C6    7   0.516   0.112  -0.045
    1  UNL   C7    8   0.307   0.235  -0.067
    1  UNL   C8    9   0.520   0.355  -0.059
    1  UNL   C9   10  -0.023   0.598  -0.155
    1  UNL  C10   11   0.182   0.475  -0.106
    1  UNL  C11   12  -0.029   0.355  -0.126
    1  UNL    N   13   0.316   0.478  -0.088
    1  UNL   N1   14   0.167   0.230  -0.079
    1  UNL   N2   15   0.297  -0.001  -0.054
    1  UNL   N3   16  -0.096   0.232  -0.124
    1  UNL   N4   17   0.586  -0.003  -0.038
    1  UNL   N5   18  -0.230   0.481  -0.183
    1  UNL  C12   19   0.304  -0.238  -0.068
    1  UNL  C13   20   0.516  -0.361  -0.059
    1  UNL  C14   21   0.515  -0.117  -0.045
    1  UNL  C15   22   0.373  -0.120  -0.055
    1  UNL  C16   23   0.584  -0.243  -0.047
    1  UNL  C17   24   0.373  -0.363  -0.072
    1  UNL   N6   25   0.311  -0.481  -0.089
    1  UNL   N7   26   0.164  -0.231  -0.079
    1  UNL  C18   27  -0.231   0.238  -0.162
    1  UNL  C19   28  -0.433   0.361  -0.226
    1  UNL  C20   29  -0.437   0.117  -0.213
    1  UNL  C21   30  -0.300   0.120  -0.174
    1  UNL  C22   31  -0.501   0.243  -0.238
    1  UNL  C23   32  -0.295   0.363  -0.188
    1  UNL   N8   33  -0.506   0.003  -0.231
    1  UNL   N9   34  -0.228   0.002  -0.147
    1  UNL  C24   35  -0.504  -0.237  -0.238
    1  UNL  C25   36  -0.299  -0.360  -0.189
    1  UNL  C26   37  -0.301  -0.116  -0.174
    1  UNL  C27   38   0.177  -0.477  -0.107
    1  UNL  C28   39  -0.033  -0.355  -0.127
    1  UNL  C29   40  -0.029  -0.597  -0.156
    1  UNL  C30   41   0.106  -0.598  -0.133
    1  UNL  C31   42  -0.104  -0.475  -0.155
    1  UNL  C32   43   0.102  -0.355  -0.104
    1  UNL  C33   44  -0.438  -0.112  -0.213
    1  UNL  C34   45  -0.234  -0.235  -0.162
    1  UNL  C35   46  -0.437  -0.356  -0.226
    1  UNL  N10   47  -0.098  -0.230  -0.125
    1  UNL  N11   48  -0.235  -0.478  -0.184
    1  UNL    H   49   0.692  -0.240  -0.039
    1  UNL   H1   50   0.567  -0.456  -0.063
    1  UNL   H2   51   0.694   0.233  -0.039
    1  UNL   H3   52   0.572   0.450  -0.062
    1  UNL   H4   53   0.171   0.688  -0.134
    1  UNL   H5   54  -0.076   0.690  -0.176
    1  UNL   H6   55  -0.480   0.456  -0.246
    1  UNL   H7   56  -0.605   0.240  -0.268
    1  UNL   H8   57  -0.608  -0.232  -0.268
    1  UNL   H9   58  -0.485  -0.450  -0.247
    1  UNL  H10   59  -0.084  -0.688  -0.178
    1  UNL  H11   60   0.164  -0.690  -0.135
    1  UNL  C36   61  -0.147   0.001  -0.023
    1  UNL  C37   62  -0.067  -0.143  -0.009
    1  UNL  C38   63   0.096  -0.144   0.020
    1  UNL  C39   64   0.178  -0.001   0.035
    1  UNL  C40   65   0.098   0.143   0.020
    1  UNL  C41   66  -0.065   0.143  -0.009
    1  UNL  C42   67  -0.051  -0.143   0.342
    1  UNL  C43   68   0.069  -0.072   0.364
    1  UNL  C44   69   0.069   0.071   0.364
    1  UNL  C45   70  -0.049   0.143   0.342
    1  UNL  C46   71  -0.124  -0.196   0.126
    1  UNL  C47   72  -0.219  -0.112   0.186
    1  UNL  C48   73  -0.026  -0.225   0.220
    1  UNL  C49   74   0.103  -0.200   0.165
    1  UNL  C50   75  -0.234   0.001   0.106
    1  UNL  C51   76  -0.217   0.114   0.187
    1  UNL  C52   77  -0.024   0.225   0.221
    1  UNL  C53   78  -0.121   0.198   0.126
    1  UNL  C54   79   0.105   0.199   0.166
    1  UNL  C55   80   0.167   0.112   0.255
    1  UNL  C56   81   0.166  -0.114   0.254
    1  UNL  C57   82   0.214  -0.001   0.187
    1  UNL  C58   83  -0.179   0.078   0.327
    1  UNL  C59   84  -0.181  -0.076   0.327
    1  UNL  H12   85  -0.400   0.083   0.542
    1  UNL  H13   86  -0.412  -0.053   0.552
    1  UNL   NI   87  -0.309  -0.001   0.457
   26.04000    27.58400    16.40600